# vtk DataFile Version 3.0
BLITZAR VTK ASCII fixture
ASCII
DATASET POLYDATA
POINTS 2 float
1 2 3
-1 -2 -3
VERTICES 2 4
1 0
1 1
POINT_DATA 2
SCALARS mass float 1
LOOKUP_TABLE default
4
6
SCALARS pressure float 1
LOOKUP_TABLE default
0
0
SCALARS temperature float 1
LOOKUP_TABLE default
5
7
VECTORS velocity float
0.1 0.2 0.3
-0.1 -0.2 -0.3
